# Region type : patch outlet
# Faces         : 4
# Area          : 1.00000000e-02
# Scale factor  : 1.00000000e+00
# Time          	areaAverage(T)
0.5             	2.03616755e-161
1               	1.54788321e-150
1.5             	3.16007453e-142
2               	2.27150596e-135
2.5             	1.73655546e-129
3               	2.58922451e-124
3.5             	1.09717413e-119
4               	1.70169105e-115
4.5             	1.15622191e-111
5               	3.93154462e-108
5.5             	7.40731658e-105
6               	8.37598718e-102
6.5             	6.06045000e-99
7               	2.95637749e-96
7.5             	1.01529097e-93
8               	2.54538882e-91
8.5             	4.80410032e-89
9               	7.00816225e-87
9.5             	7.03869812e-85
10              	5.41233417e-83
10.5            	3.65286676e-81
11              	2.17811545e-79
11.5            	1.14462311e-77
12              	5.27882009e-76
12.5            	2.13352117e-74
13              	7.57215564e-73
13.5            	2.37036876e-71
14              	6.58203400e-70
14.5            	1.63135116e-68
15              	3.63143740e-67
15.5            	7.30367969e-66
16              	1.33463359e-64
16.5            	2.22735307e-63
17              	3.41116172e-62
17.5            	4.81530574e-61
18              	6.29118320e-60
18.5            	7.63618121e-59
19              	8.64144144e-58
19.5            	9.14715190e-57
20              	9.08451402e-56
20.5            	8.48928917e-55
21              	7.48430574e-54
21.5            	6.24057989e-53
22              	4.93294617e-52
22.5            	3.70465893e-51
23              	2.64877822e-50
23.5            	1.80651153e-49
24              	1.17740856e-48
24.5            	7.34604270e-48
25              	4.39467074e-47
25.5            	2.52472495e-46
26              	1.39491899e-45
26.5            	7.42215681e-45
27              	3.80825053e-44
27.5            	1.88657587e-43
28              	9.03417674e-43
28.5            	4.18654165e-42
29              	1.87948212e-41
29.5            	8.18235467e-41
30              	3.45777249e-40
30.5            	1.41969103e-39
31              	5.66831075e-39
31.5            	2.20263129e-38
32              	8.33696791e-38
32.5            	3.07600673e-37
33              	1.10713249e-36
33.5            	3.89002072e-36
34              	1.33517539e-35
34.5            	4.47961652e-35
35              	1.47004323e-34
35.5            	4.72134744e-34
36              	1.48490276e-33
36.5            	4.57579111e-33
37              	1.38229650e-32
37.5            	4.09567092e-32
38              	1.19083455e-31
38.5            	3.39927361e-31
39              	9.53075795e-31
39.5            	2.62582954e-30
40              	7.11193424e-30
40.5            	1.89438786e-29
41              	4.96457076e-29
41.5            	1.28053631e-28
42              	3.25206784e-28
42.5            	8.13466243e-28
43              	2.00484727e-27
43.5            	4.87000630e-27
44              	1.16633731e-26
44.5            	2.75486716e-26
45              	6.41933605e-26
45.5            	1.47611260e-25
46              	3.35051675e-25
46.5            	7.50907121e-25
47              	1.66210449e-24
47.5            	3.63446201e-24
48              	7.85308560e-24
48.5            	1.67712085e-23
49              	3.54090726e-23
49.5            	7.39248185e-23
50              	1.52646897e-22
50.5            	3.11818168e-22
51              	6.30262737e-22
51.5            	1.26077367e-21
52              	2.49651369e-21
52.5            	4.89435833e-21
53              	9.50175738e-21
53.5            	1.82699623e-20
54              	3.47995760e-20
54.5            	6.56731485e-20
55              	1.22815258e-19
55.5            	2.27634732e-19
56              	4.18230504e-19
56.5            	7.61818208e-19
57              	1.37597715e-18
57.5            	2.46467371e-18
58              	4.37883396e-18
58.5            	7.71736970e-18
59              	1.34943310e-17
59.5            	2.34133002e-17
60              	4.03143551e-17
60.5            	6.88966072e-17
61              	1.16877497e-16
61.5            	1.96839182e-16
62              	3.29147975e-16
62.5            	5.46537563e-16
63              	9.01253746e-16
63.5            	1.47611541e-15
64              	2.40152184e-15
64.5            	3.88142808e-15
65              	6.23275529e-15
65.5            	9.94479647e-15
66              	1.57681888e-14
66.5            	2.48473266e-14
67              	3.89162002e-14
67.5            	6.05862620e-14
68              	9.37670114e-14
68.5            	1.44276818e-13
69              	2.20724824e-13
69.5            	3.35776834e-13
70              	5.07962014e-13
70.5            	7.64236857e-13
71              	1.14360361e-12
71.5            	1.70218876e-12
72              	2.52033199e-12
72.5            	3.71242882e-12
73              	5.44052407e-12
73.5            	7.93298791e-12
74              	1.15100426e-11
74.5            	1.66184757e-11
75              	2.38786080e-11
75.5            	3.41475289e-11
76              	4.86038138e-11
76.5            	6.88604740e-11
77              	9.71148268e-11
77.5            	1.36346413e-10
78              	1.90577143e-10
78.5            	2.65211665e-10
79              	3.67480640e-10
79.5            	5.07015461e-10
80              	6.96590030e-10
80.5            	9.53073942e-10
81              	1.29865197e-09
81.5            	1.76237752e-09
82              	2.38214296e-09
82.5            	3.20716828e-09
83              	4.30113105e-09
83.5            	5.74608672e-09
84              	7.64735866e-09
84.5            	1.01396128e-08
85              	1.33943737e-08
85.5            	1.76292864e-08
86              	2.31194853e-08
86.5            	3.02114930e-08
87              	3.93401483e-08
87.5            	5.10491412e-08
88              	6.60158307e-08
88.5            	8.50811229e-08
89              	1.09285307e-07
89.5            	1.39910876e-07
90              	1.78533501e-07
90.5            	2.27082494e-07
91              	2.87912260e-07
91.5            	3.63886419e-07
92              	4.58476507e-07
92.5            	5.75877349e-07
93              	7.21141438e-07
93.5            	9.00334913e-07
94              	1.12071794e-06
94.5            	1.39095260e-06
95              	1.72134163e-06
95.5            	2.12410162e-06
96              	2.61367461e-06
96.5            	3.20708213e-06
97              	3.92432619e-06
97.5            	4.78884185e-06
98              	5.82800611e-06
98.5            	7.07370833e-06
99              	8.56298727e-06
99.5            	1.03387401e-05
100             	1.24505089e-05
100.5           	1.49553495e-05
101             	1.79187894e-05
101.5           	2.14158774e-05
102             	2.55323335e-05
102.5           	3.03658004e-05
103             	3.60272028e-05
103.5           	4.26422185e-05
104             	5.03528632e-05
104.5           	5.93191929e-05
105             	6.97211251e-05
105.5           	8.17603791e-05
106             	9.56625359e-05
106.5           	1.11679217e-04
107             	1.30090375e-04
107.5           	1.51206702e-04
108             	1.75372135e-04
108.5           	2.02966466e-04
109             	2.34408039e-04
109.5           	2.70156526e-04
110             	3.10715773e-04
110.5           	3.56636690e-04
111             	4.08520186e-04
111.5           	4.67020119e-04
112             	5.32846243e-04
112.5           	6.06767136e-04
113             	6.89613080e-04
113.5           	7.82278872e-04
114             	8.85726534e-04
114.5           	1.00098791e-03
115             	1.12916709e-03
115.5           	1.27144269e-03
116             	1.42906986e-03
116.5           	1.60338213e-03
117             	1.79579289e-03
117.5           	2.00779666e-03
118             	2.24096996e-03
118.5           	2.49697182e-03
119             	2.77754399e-03
119.5           	3.08451056e-03
120             	3.41977734e-03
120.5           	3.78533060e-03
121             	4.18323546e-03
121.5           	4.61563367e-03
122             	5.08474095e-03
122.5           	5.59284378e-03
123             	6.14229562e-03
123.5           	6.73551265e-03
124             	7.37496890e-03
124.5           	8.06319094e-03
125             	8.80275195e-03
125.5           	9.59626532e-03
126             	1.04463778e-02
126.5           	1.13557619e-02
127             	1.23271085e-02
127.5           	1.33631183e-02
128             	1.44664930e-02
128.5           	1.56399270e-02
129             	1.68860972e-02
129.5           	1.82076545e-02
130             	1.96072132e-02
130.5           	2.10873413e-02
131             	2.26505510e-02
131.5           	2.42992879e-02
132             	2.60359215e-02
132.5           	2.78627347e-02
133             	2.97819145e-02
133.5           	3.17955417e-02
134             	3.39055821e-02
134.5           	3.61138767e-02
135             	3.84221330e-02
135.5           	4.08319172e-02
136             	4.33446453e-02
136.5           	4.59615763e-02
137             	4.86838051e-02
137.5           	5.15122561e-02
138             	5.44476776e-02
138.5           	5.74906370e-02
139             	6.06415158e-02
139.5           	6.39005070e-02
140             	6.72676113e-02
140.5           	7.07426356e-02
141             	7.43251915e-02
141.5           	7.80146947e-02
142             	8.18103654e-02
142.5           	8.57112293e-02
143             	8.97161192e-02
143.5           	9.38236777e-02
144             	9.80323607e-02
144.5           	1.02340441e-01
145             	1.06746013e-01
145.5           	1.11246998e-01
146             	1.15841152e-01
146.5           	1.20526070e-01
147             	1.25299192e-01
147.5           	1.30157814e-01
148             	1.35099096e-01
148.5           	1.40120067e-01
149             	1.45217636e-01
149.5           	1.50388603e-01
150             	1.55629666e-01
150.5           	1.60937430e-01
151             	1.66308421e-01
151.5           	1.71739090e-01
152             	1.77225829e-01
152.5           	1.82764978e-01
153             	1.88352834e-01
153.5           	1.93985665e-01
154             	1.99659714e-01
154.5           	2.05371217e-01
155             	2.11116403e-01
155.5           	2.16891509e-01
156             	2.22692790e-01
156.5           	2.28516525e-01
157             	2.34359024e-01
157.5           	2.40216640e-01
158             	2.46085774e-01
158.5           	2.51962885e-01
159             	2.57844492e-01
159.5           	2.63727185e-01
160             	2.69607629e-01
160.5           	2.75482571e-01
161             	2.81348842e-01
161.5           	2.87203365e-01
162             	2.93043156e-01
162.5           	2.98865332e-01
163             	3.04667109e-01
163.5           	3.10445809e-01
164             	3.16198861e-01
164.5           	3.21923801e-01
165             	3.27618276e-01
165.5           	3.33280047e-01
166             	3.38906982e-01
166.5           	3.44497064e-01
167             	3.50048390e-01
167.5           	3.55559165e-01
168             	3.61027709e-01
168.5           	3.66452449e-01
169             	3.71831924e-01
169.5           	3.77164777e-01
170             	3.82449760e-01
170.5           	3.87685726e-01
171             	3.92871630e-01
171.5           	3.98006527e-01
172             	4.03089567e-01
172.5           	4.08119995e-01
173             	4.13097146e-01
173.5           	4.18020442e-01
174             	4.22889392e-01
174.5           	4.27703584e-01
175             	4.32462687e-01
175.5           	4.37166443e-01
176             	4.41814669e-01
176.5           	4.46407246e-01
177             	4.50944126e-01
177.5           	4.55425319e-01
178             	4.59850896e-01
178.5           	4.64220982e-01
179             	4.68535757e-01
179.5           	4.72795449e-01
180             	4.77000331e-01
180.5           	4.81150721e-01
181             	4.85246978e-01
181.5           	4.89289497e-01
182             	4.93278709e-01
182.5           	4.97215075e-01
183             	5.01099087e-01
183.5           	5.04931264e-01
184             	5.08712150e-01
184.5           	5.12442308e-01
185             	5.16122325e-01
185.5           	5.19752803e-01
186             	5.23334362e-01
186.5           	5.26867632e-01
187             	5.30353260e-01
187.5           	5.33791898e-01
188             	5.37184211e-01
188.5           	5.40530868e-01
189             	5.43832545e-01
189.5           	5.47089922e-01
190             	5.50303679e-01
190.5           	5.53474503e-01
191             	5.56603077e-01
191.5           	5.59690084e-01
192             	5.62736207e-01
192.5           	5.65742126e-01
193             	5.68708517e-01
193.5           	5.71636052e-01
194             	5.74525398e-01
194.5           	5.77377219e-01
195             	5.80192169e-01
195.5           	5.82970898e-01
196             	5.85714049e-01
196.5           	5.88422257e-01
197             	5.91096148e-01
197.5           	5.93736343e-01
198             	5.96343451e-01
198.5           	5.98918075e-01
199             	6.01460808e-01
199.5           	6.03972233e-01
200             	6.06452927e-01
200.5           	6.08903453e-01
201             	6.11324370e-01
201.5           	6.13716222e-01
202             	6.16079548e-01
202.5           	6.18414875e-01
203             	6.20722722e-01
203.5           	6.23003597e-01
204             	6.25257999e-01
204.5           	6.27486419e-01
205             	6.29689337e-01
205.5           	6.31867224e-01
206             	6.34020543e-01
206.5           	6.36149747e-01
207             	6.38255279e-01
207.5           	6.40337577e-01
208             	6.42397065e-01
208.5           	6.44434163e-01
209             	6.46449281e-01
209.5           	6.48442819e-01
210             	6.50415170e-01
210.5           	6.52366721e-01
211             	6.54297849e-01
211.5           	6.56208922e-01
212             	6.58100304e-01
212.5           	6.59972349e-01
213             	6.61825404e-01
213.5           	6.63659809e-01
214             	6.65475898e-01
214.5           	6.67273996e-01
215             	6.69054424e-01
215.5           	6.70817495e-01
216             	6.72563515e-01
216.5           	6.74292783e-01
217             	6.76005595e-01
217.5           	6.77702239e-01
218             	6.79382995e-01
218.5           	6.81048142e-01
219             	6.82697949e-01
219.5           	6.84332681e-01
220             	6.85952598e-01
220.5           	6.87557954e-01
221             	6.89148999e-01
221.5           	6.90725976e-01
222             	6.92289125e-01
222.5           	6.93838679e-01
223             	6.95374867e-01
223.5           	6.96897916e-01
224             	6.98408043e-01
224.5           	6.99905465e-01
225             	7.01390393e-01
225.5           	7.02863034e-01
226             	7.04323590e-01
226.5           	7.05772260e-01
227             	7.07209237e-01
227.5           	7.08634712e-01
228             	7.10048872e-01
228.5           	7.11451898e-01
229             	7.12843970e-01
229.5           	7.14225263e-01
230             	7.15595947e-01
230.5           	7.16956191e-01
231             	7.18306158e-01
231.5           	7.19646011e-01
232             	7.20975906e-01
232.5           	7.22295997e-01
233             	7.23606436e-01
233.5           	7.24907369e-01
234             	7.26198943e-01
234.5           	7.27481297e-01
235             	7.28754571e-01
235.5           	7.30018901e-01
236             	7.31274418e-01
236.5           	7.32521252e-01
237             	7.33759531e-01
237.5           	7.34989379e-01
238             	7.36210917e-01
238.5           	7.37424264e-01
239             	7.38629537e-01
239.5           	7.39826848e-01
240             	7.41016310e-01
240.5           	7.42198030e-01
241             	7.43372116e-01
241.5           	7.44538671e-01
242             	7.45697796e-01
242.5           	7.46849592e-01
243             	7.47994155e-01
243.5           	7.49131581e-01
244             	7.50261961e-01
244.5           	7.51385388e-01
245             	7.52501948e-01
245.5           	7.53611730e-01
246             	7.54714818e-01
246.5           	7.55811294e-01
247             	7.56901239e-01
247.5           	7.57984733e-01
248             	7.59061853e-01
248.5           	7.60132673e-01
249             	7.61197269e-01
249.5           	7.62255711e-01
250             	7.63308071e-01
250.5           	7.64354416e-01
251             	7.65394815e-01
251.5           	7.66429333e-01
252             	7.67458034e-01
252.5           	7.68480981e-01
253             	7.69498235e-01
253.5           	7.70509856e-01
254             	7.71515903e-01
254.5           	7.72516433e-01
255             	7.73511502e-01
255.5           	7.74501165e-01
256             	7.75485474e-01
256.5           	7.76464483e-01
257             	7.77438243e-01
257.5           	7.78406803e-01
258             	7.79370213e-01
258.5           	7.80328521e-01
259             	7.81281772e-01
259.5           	7.82230015e-01
260             	7.83173292e-01
260.5           	7.84111648e-01
261             	7.85045127e-01
261.5           	7.85973770e-01
262             	7.86897618e-01
262.5           	7.87816713e-01
263             	7.88731094e-01
263.5           	7.89640799e-01
264             	7.90545867e-01
264.5           	7.91446335e-01
265             	7.92342240e-01
265.5           	7.93233618e-01
266             	7.94120504e-01
266.5           	7.95002934e-01
267             	7.95880940e-01
267.5           	7.96754557e-01
268             	7.97623817e-01
268.5           	7.98488753e-01
269             	7.99349397e-01
269.5           	8.00205780e-01
270             	8.01057932e-01
270.5           	8.01905885e-01
271             	8.02749668e-01
271.5           	8.03589310e-01
272             	8.04424840e-01
272.5           	8.05256288e-01
273             	8.06083680e-01
273.5           	8.06907046e-01
274             	8.07726411e-01
274.5           	8.08541805e-01
275             	8.09353252e-01
275.5           	8.10160780e-01
276             	8.10964414e-01
276.5           	8.11764181e-01
277             	8.12560106e-01
277.5           	8.13352214e-01
278             	8.14140530e-01
278.5           	8.14925079e-01
279             	8.15705885e-01
279.5           	8.16482972e-01
280             	8.17256365e-01
280.5           	8.18026087e-01
281             	8.18792162e-01
281.5           	8.19554612e-01
282             	8.20313462e-01
282.5           	8.21068734e-01
283             	8.21820451e-01
283.5           	8.22568636e-01
284             	8.23313310e-01
284.5           	8.24054497e-01
285             	8.24792219e-01
285.5           	8.25526497e-01
286             	8.26257354e-01
286.5           	8.26984810e-01
287             	8.27708888e-01
287.5           	8.28429610e-01
288             	8.29146996e-01
288.5           	8.29861068e-01
289             	8.30571847e-01
289.5           	8.31279354e-01
290             	8.31983609e-01
290.5           	8.32684635e-01
291             	8.33382450e-01
291.5           	8.34077077e-01
292             	8.34768535e-01
292.5           	8.35456845e-01
293             	8.36142028e-01
293.5           	8.36824102e-01
294             	8.37503090e-01
294.5           	8.38179010e-01
295             	8.38851883e-01
295.5           	8.39521729e-01
296             	8.40188567e-01
296.5           	8.40852418e-01
297             	8.41513300e-01
297.5           	8.42171234e-01
298             	8.42826239e-01
298.5           	8.43478334e-01
299             	8.44127539e-01
299.5           	8.44773872e-01
300             	8.45417354e-01
300.5           	8.46058003e-01
301             	8.46695839e-01
301.5           	8.47330880e-01
302             	8.47963144e-01
302.5           	8.48592652e-01
303             	8.49219421e-01
303.5           	8.49843470e-01
304             	8.50464818e-01
304.5           	8.51083483e-01
305             	8.51699483e-01
305.5           	8.52312837e-01
306             	8.52923562e-01
306.5           	8.53531678e-01
307             	8.54137201e-01
307.5           	8.54740149e-01
308             	8.55340542e-01
308.5           	8.55938395e-01
309             	8.56533726e-01
309.5           	8.57126554e-01
310             	8.57716896e-01
310.5           	8.58304767e-01
311             	8.58890187e-01
311.5           	8.59473172e-01
312             	8.60053738e-01
312.5           	8.60631903e-01
313             	8.61207683e-01
313.5           	8.61781095e-01
314             	8.62352155e-01
314.5           	8.62920879e-01
315             	8.63487284e-01
315.5           	8.64051386e-01
316             	8.64613201e-01
316.5           	8.65172744e-01
317             	8.65730032e-01
317.5           	8.66285079e-01
318             	8.66837902e-01
318.5           	8.67388514e-01
319             	8.67936933e-01
319.5           	8.68483172e-01
320             	8.69027246e-01
320.5           	8.69569171e-01
321             	8.70108961e-01
321.5           	8.70646629e-01
322             	8.71182191e-01
322.5           	8.71715660e-01
323             	8.72247051e-01
323.5           	8.72776378e-01
324             	8.73303653e-01
324.5           	8.73828891e-01
325             	8.74352105e-01
325.5           	8.74873308e-01
326             	8.75392513e-01
326.5           	8.75909733e-01
327             	8.76424981e-01
327.5           	8.76938270e-01
328             	8.77449611e-01
328.5           	8.77959018e-01
329             	8.78466501e-01
329.5           	8.78972074e-01
330             	8.79475748e-01
330.5           	8.79977535e-01
331             	8.80477445e-01
331.5           	8.80975491e-01
332             	8.81471684e-01
332.5           	8.81966034e-01
333             	8.82458552e-01
333.5           	8.82949250e-01
334             	8.83438137e-01
334.5           	8.83925224e-01
335             	8.84410521e-01
335.5           	8.84894038e-01
336             	8.85375786e-01
336.5           	8.85855773e-01
337             	8.86334010e-01
337.5           	8.86810505e-01
338             	8.87285269e-01
338.5           	8.87758309e-01
339             	8.88229636e-01
339.5           	8.88699258e-01
340             	8.89167184e-01
340.5           	8.89633422e-01
341             	8.90097980e-01
341.5           	8.90560868e-01
342             	8.91022092e-01
342.5           	8.91481661e-01
343             	8.91939583e-01
343.5           	8.92395866e-01
344             	8.92850516e-01
344.5           	8.93303542e-01
345             	8.93754950e-01
345.5           	8.94204749e-01
346             	8.94652944e-01
346.5           	8.95099543e-01
347             	8.95544553e-01
347.5           	8.95987979e-01
348             	8.96429830e-01
348.5           	8.96870111e-01
349             	8.97308828e-01
349.5           	8.97745988e-01
350             	8.98181597e-01
350.5           	8.98615661e-01
351             	8.99048185e-01
351.5           	8.99479176e-01
352             	8.99908639e-01
352.5           	9.00336579e-01
353             	9.00763003e-01
353.5           	9.01187916e-01
354             	9.01611323e-01
354.5           	9.02033228e-01
355             	9.02453638e-01
355.5           	9.02872558e-01
356             	9.03289991e-01
356.5           	9.03705944e-01
357             	9.04120421e-01
357.5           	9.04533427e-01
358             	9.04944966e-01
358.5           	9.05355044e-01
359             	9.05763664e-01
359.5           	9.06170831e-01
360             	9.06576549e-01
360.5           	9.06980824e-01
361             	9.07383659e-01
361.5           	9.07785059e-01
362             	9.08185027e-01
362.5           	9.08583568e-01
363             	9.08980686e-01
363.5           	9.09376386e-01
364             	9.09770670e-01
364.5           	9.10163544e-01
365             	9.10555011e-01
365.5           	9.10945076e-01
366             	9.11333741e-01
366.5           	9.11721011e-01
367             	9.12106890e-01
367.5           	9.12491382e-01
368             	9.12874490e-01
368.5           	9.13256218e-01
369             	9.13636571e-01
369.5           	9.14015551e-01
370             	9.14393163e-01
370.5           	9.14769410e-01
371             	9.15144296e-01
371.5           	9.15517825e-01
372             	9.15890001e-01
372.5           	9.16260826e-01
373             	9.16630306e-01
373.5           	9.16998443e-01
374             	9.17365241e-01
374.5           	9.17730705e-01
375             	9.18094837e-01
375.5           	9.18457641e-01
376             	9.18819122e-01
376.5           	9.19179283e-01
377             	9.19538128e-01
377.5           	9.19895660e-01
378             	9.20251883e-01
378.5           	9.20606801e-01
379             	9.20960418e-01
379.5           	9.21312738e-01
380             	9.21663764e-01
380.5           	9.22013501e-01
381             	9.22361951e-01
381.5           	9.22709120e-01
382             	9.23055011e-01
382.5           	9.23399628e-01
383             	9.23742975e-01
383.5           	9.24085055e-01
384             	9.24425873e-01
384.5           	9.24765434e-01
385             	9.25103740e-01
385.5           	9.25440796e-01
386             	9.25776606e-01
386.5           	9.26111175e-01
387             	9.26444506e-01
387.5           	9.26776603e-01
388             	9.27107471e-01
388.5           	9.27437115e-01
389             	9.27765537e-01
389.5           	9.28092743e-01
390             	9.28418737e-01
390.5           	9.28743523e-01
391             	9.29067106e-01
391.5           	9.29389489e-01
392             	9.29710678e-01
392.5           	9.30030677e-01
393             	9.30349490e-01
393.5           	9.30667122e-01
394             	9.30983577e-01
394.5           	9.31298860e-01
395             	9.31612976e-01
395.5           	9.31925928e-01
396             	9.32237723e-01
396.5           	9.32548364e-01
397             	9.32857856e-01
397.5           	9.33166203e-01
398             	9.33473412e-01
398.5           	9.33779485e-01
399             	9.34084429e-01
399.5           	9.34388248e-01
400             	9.34690946e-01
400.5           	9.34992529e-01
401             	9.35293002e-01
401.5           	9.35592368e-01
402             	9.35890634e-01
402.5           	9.36187805e-01
403             	9.36483884e-01
403.5           	9.36778878e-01
404             	9.37072791e-01
404.5           	9.37365628e-01
405             	9.37657394e-01
405.5           	9.37948094e-01
406             	9.38237734e-01
406.5           	9.38526318e-01
407             	9.38813851e-01
407.5           	9.39100339e-01
408             	9.39385787e-01
408.5           	9.39670199e-01
409             	9.39953581e-01
409.5           	9.40235938e-01
410             	9.40517276e-01
410.5           	9.40797599e-01
411             	9.41076912e-01
411.5           	9.41355221e-01
412             	9.41632530e-01
412.5           	9.41908846e-01
413             	9.42184173e-01
413.5           	9.42458517e-01
414             	9.42731882e-01
414.5           	9.43004274e-01
415             	9.43275697e-01
415.5           	9.43546158e-01
416             	9.43815662e-01
416.5           	9.44084213e-01
417             	9.44351817e-01
417.5           	9.44618478e-01
418             	9.44884203e-01
418.5           	9.45148997e-01
419             	9.45412863e-01
419.5           	9.45675809e-01
420             	9.45937838e-01
420.5           	9.46198957e-01
421             	9.46459169e-01
421.5           	9.46718481e-01
422             	9.46976897e-01
422.5           	9.47234423e-01
423             	9.47491064e-01
423.5           	9.47746825e-01
424             	9.48001710e-01
424.5           	9.48255726e-01
425             	9.48508876e-01
425.5           	9.48761167e-01
426             	9.49012603e-01
426.5           	9.49263189e-01
427             	9.49512930e-01
427.5           	9.49761831e-01
428             	9.50009898e-01
428.5           	9.50257135e-01
429             	9.50503547e-01
429.5           	9.50749139e-01
430             	9.50993915e-01
430.5           	9.51237882e-01
431             	9.51481044e-01
431.5           	9.51723405e-01
432             	9.51964970e-01
432.5           	9.52205745e-01
433             	9.52445734e-01
433.5           	9.52684941e-01
434             	9.52923372e-01
434.5           	9.53161031e-01
435             	9.53397924e-01
435.5           	9.53634054e-01
436             	9.53869426e-01
436.5           	9.54104045e-01
437             	9.54337916e-01
437.5           	9.54571043e-01
438             	9.54803430e-01
438.5           	9.55035083e-01
439             	9.55266006e-01
439.5           	9.55496203e-01
440             	9.55725679e-01
440.5           	9.55954438e-01
441             	9.56182484e-01
441.5           	9.56409823e-01
442             	9.56636457e-01
442.5           	9.56862393e-01
443             	9.57087633e-01
443.5           	9.57312183e-01
444             	9.57536046e-01
444.5           	9.57759228e-01
445             	9.57981730e-01
445.5           	9.58203560e-01
446             	9.58424719e-01
446.5           	9.58645213e-01
447             	9.58865045e-01
447.5           	9.59084220e-01
448             	9.59302741e-01
448.5           	9.59520613e-01
449             	9.59737839e-01
449.5           	9.59954424e-01
450             	9.60170372e-01
450.5           	9.60385685e-01
451             	9.60600369e-01
451.5           	9.60814427e-01
452             	9.61027863e-01
452.5           	9.61240681e-01
453             	9.61452883e-01
453.5           	9.61664475e-01
454             	9.61875460e-01
454.5           	9.62085841e-01
455             	9.62295622e-01
455.5           	9.62504807e-01
456             	9.62713399e-01
456.5           	9.62921402e-01
457             	9.63128820e-01
457.5           	9.63335655e-01
458             	9.63541911e-01
458.5           	9.63747593e-01
459             	9.63952702e-01
459.5           	9.64157244e-01
460             	9.64361220e-01
460.5           	9.64564634e-01
461             	9.64767490e-01
461.5           	9.64969791e-01
462             	9.65171540e-01
462.5           	9.65372740e-01
463             	9.65573394e-01
463.5           	9.65773507e-01
464             	9.65973080e-01
464.5           	9.66172117e-01
465             	9.66370621e-01
465.5           	9.66568595e-01
466             	9.66766042e-01